#     Step Nr.          Time[fs]        Kin.[a.u.]          Temp[K]            Pot.[a.u.]        Cons Qty[a.u.]        UsedTime[s]
         0            0.000000         0.180983497       300.000000000        -1.078061747        -0.897078250         0.000000000
         1            2.000000         0.121293345       201.057024490        -1.102842175        -0.981563064         0.074365816
         2            4.000000         0.123078796       204.016606371        -1.105214569        -0.981601097         0.024284615
         3            6.000000         0.133561456       221.392764437        -1.112484326        -0.981711287         0.023844536
         4            8.000000         0.146926045       243.546037285        -1.123009480        -0.981869732         0.023588518
         5           10.000000         0.157170461       260.527280070        -1.134194250        -0.982035233         0.022878523
         6           12.000000         0.167817185       278.175393968        -1.143515210        -0.982155332         0.021741408
         7           14.000000         0.169482804       280.936339320        -1.149164880        -0.982189528         0.022400354
         8           16.000000         0.167754484       278.071460709        -1.150781368        -0.982142365         0.029982370
         9           18.000000         0.167026023       276.863955412        -1.149274280        -0.982051030         0.023308393
        10           20.000000         0.164935538       273.398748377        -1.145918785        -0.981953492         0.024078331
        11           22.000000         0.161278152       267.336228530        -1.142006914        -0.981878162         0.024896758
        12           24.000000         0.158988566       263.540988570        -1.138617909        -0.981840878         0.024430948
        13           26.000000         0.157329337       260.790634679        -1.136227388        -0.981837794         0.025447150
        14           28.000000         0.157616653       261.266893175        -1.134833020        -0.981849936         0.025140113
        15           30.000000         0.159889660       265.034652036        -1.134149576        -0.981854602         0.033858962
        16           32.000000         0.159310621       264.074830451        -1.133990277        -0.981840323         0.025083687
        17           34.000000         0.160908297       266.723154703        -1.134499614        -0.981816567         0.024139256
        18           36.000000         0.163303017       270.692665282        -1.135972276        -0.981807492         0.024049376
        19           38.000000         0.165194163       273.827446541        -1.138520324        -0.981834862         0.024708213
        20           40.000000         0.169471113       280.916961224        -1.141759028        -0.981898115         0.025749351
        21           42.000000         0.170469012       282.571088675        -1.144761928        -0.981968228         0.033015823
        22           44.000000         0.172760635       286.369704647        -1.146596573        -0.982006793         0.024568667
        23           46.000000         0.172812305       286.455352956        -1.146779792        -0.981992589         0.024300856
        24           48.000000         0.170630795       282.839261516        -1.145519448        -0.981931041         0.023820032
        25           50.000000         0.170302181       282.294547205        -1.143660879        -0.981850140         0.023168185
        26           52.000000         0.171430000       284.164031321        -1.142293587        -0.981786179         0.024450342
        27           54.000000         0.173717425       287.955688854        -1.142311350        -0.981765266         0.033082503
        28           56.000000         0.175469163       290.859386788        -1.143994443        -0.981791992         0.024305991
        29           58.000000         0.179809701       298.054304976        -1.146923548        -0.981853408         0.024336017
        30           60.000000         0.182636240       302.739602831        -1.150180055        -0.981928595         0.024195761
        31           62.000000         0.181371820       300.643688982        -1.152663877        -0.981993477         0.021675561
        32           64.000000         0.185210065       307.006000791        -1.153515483        -0.982025163         0.021701356
        33           66.000000         0.186824824       309.682640301        -1.152270678        -0.982010820         0.028964816
        34           68.000000         0.184267396       305.443422540        -1.149022517        -0.981957152         0.021907691
        35           70.000000         0.179493430       297.530051286        -1.144470362        -0.981885200         0.022640817
        36           72.000000         0.174061116       288.525393893        -1.139713593        -0.981817492         0.023893191
        37           74.000000         0.168468224       279.254562979        -1.135777716        -0.981770550         0.022319206
        38           76.000000         0.166568435       276.105453722        -1.133403589        -0.981753821         0.021677199
        39           78.000000         0.168917522       279.999323238        -1.132814922        -0.981767506         0.032526069
        40           80.000000         0.170632164       282.841530406        -1.133727933        -0.981803723         0.025123561
        41           82.000000         0.173455464       287.521459376        -1.135459341        -0.981849041         0.024064593
        42           84.000000         0.173301571       287.266365339        -1.137258069        -0.981889253         0.024841989
        43           86.000000         0.174813624       289.772759581        -1.138563176        -0.981915424         0.023776333
        44           88.000000         0.174789562       289.732873471        -1.138949587        -0.981922203         0.024195242
        45           90.000000         0.176202313       292.074662610        -1.138315489        -0.981907297         0.023073800
        46           92.000000         0.175387180       290.723490408        -1.136837626        -0.981870531         0.033583191
        47           94.000000         0.174667206       289.530055544        -1.135027280        -0.981820037         0.025003095
        48           96.000000         0.175519495       290.942817007        -1.133591661        -0.981775643         0.024440769
        49           98.000000         0.176234472       292.127969843        -1.133056703        -0.981756905         0.023874416
        50          100.000000         0.176493322       292.557041786        -1.133579280        -0.981771143         0.022533602
        51          102.000000         0.178336542       295.612381288        -1.134931200        -0.981808216         0.023026995
        52          104.000000         0.180677283       299.492417030        -1.136560420        -0.981847179         0.030261879
        53          106.000000         0.184331978       305.550474671        -1.137820188        -0.981867243         0.024186228
        54          108.000000         0.184711197       306.179071256        -1.138354499        -0.981858581         0.023705353
        55          110.000000         0.183911094       304.852812979        -1.138270382        -0.981826865         0.023008267
        56          112.000000         0.185865491       308.092441257        -1.137952313        -0.981789739         0.023294076
        57          114.000000         0.187630854       311.018723687        -1.137781927        -0.981768580         0.023788759
        58          116.000000         0.187688070       311.113564957        -1.137933222        -0.981776634         0.031554270
        59          118.000000         0.186683191       309.447868612        -1.138237780        -0.981808641         0.022501039
        60          120.000000         0.186236770       308.707877074        -1.138237410        -0.981843622         0.023383372
        61          122.000000         0.187310081       310.487006729        -1.137459757        -0.981857476         0.023933065
        62          124.000000         0.184443458       305.735265383        -1.135690335        -0.981839590         0.024437914
        63          126.000000         0.184211447       305.350681008        -1.133146233        -0.981798954         0.024145759
        64          128.000000         0.182175597       301.976037373        -1.130371880        -0.981753571         0.031872719
        65          130.000000         0.177215837       293.754690513        -1.128053413        -0.981719873         0.024239484
        66          132.000000         0.173473643       287.551593281        -1.126846398        -0.981710229         0.023142706
        67          134.000000         0.173475552       287.554757954        -1.126977707        -0.981730197         0.025631229
        68          136.000000         0.179488675       297.522168229        -1.128144909        -0.981774295         0.023740287
        69          138.000000         0.178524769       295.924389635        -1.129629771        -0.981823412         0.025533391
        70          140.000000         0.181886975       301.497613635        -1.130695483        -0.981851124         0.057462567
        71          142.000000         0.183775055       304.627313064        -1.130931949        -0.981844094         0.029680504
        72          144.000000         0.182804889       303.019157527        -1.130329078        -0.981807417         0.025480878
        73          146.000000         0.182541909       302.583239228        -1.129447917        -0.981759950         0.023017793
        74          148.000000         0.179042119       296.781953967        -1.129079563        -0.981720264         0.023707866
        75          150.000000         0.182571695       302.632613400        -1.129878295        -0.981701930         0.021947782
        76          152.000000         0.184625406       306.036863847        -1.132117263        -0.981714698         0.022051319
        77          154.000000         0.187081381       310.107911333        -1.135653956        -0.981763853         0.029241228
        78          156.000000         0.194393574       322.228674693        -1.139839280        -0.981846292         0.022948834
        79          158.000000         0.198264383       328.644964045        -1.143361851        -0.981939544         0.024464083
        80          160.000000         0.197428050       327.258650216        -1.144835417        -0.982007806         0.022729427
        81          162.000000         0.197647558       327.622508918        -1.143310731        -0.982014152         0.023362736
        82          164.000000         0.190351619       315.528690926        -1.138754947        -0.981945987         0.023504414
        83          166.000000         0.185924442       308.190159046        -1.132285351        -0.981826339         0.031178224
        84          168.000000         0.181693668       301.177187091        -1.125562068        -0.981700837         0.025260692
        85          170.000000         0.176539619       292.633785649        -1.120404148        -0.981617334         0.024967664
        86          172.000000         0.171646230       284.522455360        -1.118066210        -0.981598187         0.024313196
        87          174.000000         0.171964253       285.049613975        -1.118899132        -0.981637256         0.022892712
        88          176.000000         0.173996521       288.418321775        -1.122431843        -0.981717130         0.023553723
        89          178.000000         0.177827375       294.768382531        -1.127623623        -0.981819349         0.023475386
        90          180.000000         0.185255610       307.081495507        -1.133083073        -0.981918173         0.032821889
        91          182.000000         0.186787930       309.621484543        -1.137410948        -0.981980567         0.024846940
        92          184.000000         0.186288273       308.793248647        -1.139844391        -0.981986506         0.025295856
        93          186.000000         0.189857584       314.709772214        -1.140472272        -0.981941261         0.024743330
        94          188.000000         0.190223532       315.316372420        -1.139909481        -0.981866772         0.024783810
        95          190.000000         0.189915088       314.805091454        -1.139178860        -0.981797982         0.024472425
        96          192.000000         0.188789516       312.939333382        -1.139291964        -0.981767548         0.024766767
        97          194.000000         0.188925739       313.165137812        -1.140707038        -0.981787994         0.033284893
        98          196.000000         0.187777744       311.262209628        -1.143203264        -0.981843667         0.024980263
        99          198.000000         0.191965874       318.204494761        -1.146050731        -0.981898788         0.024656488
       100          200.000000         0.196452262       325.641174494        -1.148420598        -0.981919775         0.023697705
       101          202.000000         0.197899208       328.039647466        -1.149880522        -0.981894596         0.024405808
       102          204.000000         0.195270548       323.682353766        -1.150706286        -0.981844892         0.023810222
       103          206.000000         0.193848449       321.325069356        -1.151634126        -0.981809884         0.032404240
       104          208.000000         0.196106096       325.067366186        -1.153219242        -0.981815311         0.024690959
       105          210.000000         0.197745276       327.784487516        -1.155393956        -0.981860866         0.025316838
       106          212.000000         0.197120363       326.748626364        -1.157535931        -0.981928257         0.024633391
       107          214.000000         0.201018675       333.210505862        -1.158735484        -0.981985203         0.025086323
       108          216.000000         0.196831777       326.270262661        -1.158248671        -0.981995626         0.032566537
       109          218.000000         0.197316580       327.073877802        -1.155970080        -0.981947831         0.024525465
       110          220.000000         0.195175654       323.525057156        -1.152543165        -0.981865254         0.023052215
       111          222.000000         0.191564308       317.538854627        -1.149142221        -0.981790327         0.024797839
       112          224.000000         0.189523770       314.156438999        -1.146897918        -0.981754770         0.024539750
       113          226.000000         0.188869218       313.071448452        -1.146312367        -0.981763260         0.025081083
       114          228.000000         0.187916581       311.492348220        -1.147267295        -0.981802958         0.032302471
       115          230.000000         0.188731231       312.842718685        -1.149303716        -0.981860177         0.023939221
       116          232.000000         0.190157602       315.207085881        -1.151699199        -0.981923416         0.024020375
       117          234.000000         0.191893338       318.084258230        -1.153537261        -0.981975538         0.023477405
       118          236.000000         0.194314723       322.097969508        -1.154044436        -0.981996657         0.022576363
       119          238.000000         0.194580591       322.538675272        -1.152843049        -0.981975191         0.022410720
       120          240.000000         0.191641464       317.666750389        -1.150151796        -0.981921038         0.030304700
       121          242.000000         0.186997264       309.968479542        -1.146682816        -0.981860073         0.024055794
       122          244.000000         0.181590268       301.005788979        -1.143317813        -0.981815746         0.025089162
       123          246.000000         0.177743590       294.629499052        -1.140682164        -0.981798282         0.025079242
       124          248.000000         0.175429800       290.794137937        -1.139023992        -0.981809620         0.025355677
       125          250.000000         0.175872247       291.527542163        -1.138118807        -0.981844291         0.023288474
       126          252.000000         0.174893258       289.904760248        -1.137444087        -0.981888086         0.023768178
       127          254.000000         0.175005615       290.091005106        -1.136345637        -0.981921758         0.022181083
       128          256.000000         0.172930212       286.650796524        -1.134237588        -0.981929118         0.032054530
       129          258.000000         0.169779866       281.428752726        -1.130944928        -0.981905856         0.023902467
       130          260.000000         0.167289133       277.300088809        -1.126831454        -0.981857823         0.025477814
       131          262.000000         0.160637501       266.274280567        -1.122599913        -0.981791187         0.023771824
       132          264.000000         0.157137427       260.472523943        -1.119396052        -0.981719075         0.023520859
       133          266.000000         0.154917469       256.792700057        -1.118405015        -0.981664389         0.022856223
       134          268.000000         0.157031585       260.297078253        -1.120486157        -0.981657100         0.023297774
       135          270.000000         0.164772859       273.129089898        -1.125732836        -0.981717039         0.032738090
       136          272.000000         0.169162340       280.405136420        -1.133167585        -0.981836871         0.024380048
       137          274.000000         0.178366172       295.661497218        -1.141002334        -0.981980331         0.022922244
       138          276.000000         0.183037506       303.404745454        -1.147144192        -0.982095384         0.023791887
       139          278.000000         0.186474387       309.101753522        -1.149983532        -0.982136759         0.024454897
       140          280.000000         0.186764496       309.582640720        -1.148896527        -0.982084271         0.024343614
       141          282.000000         0.187896836       311.459617908        -1.144548607        -0.981959028         0.032561308
       142          284.000000         0.181715248       301.212957963        -1.138642898        -0.981816810         0.024083471
       143          286.000000         0.176971107       293.349023051        -1.133256338        -0.981718093         0.022529230
       144          288.000000         0.173512706       287.616343886        -1.129856237        -0.981692084         0.022466750
       145          290.000000         0.169286018       280.610145276        -1.128804258        -0.981733129         0.024795730
       146          292.000000         0.168621841       279.509199946        -1.129541800        -0.981813561         0.025251233
       147          294.000000         0.172291669       285.592342396        -1.130857370        -0.981896842         0.024565736
       148          296.000000         0.174129691       288.639065703        -1.131305014        -0.981944025         0.033250647
       149          298.000000         0.172072173       285.228502551        -1.130020118        -0.981934847         0.023984380
       150          300.000000         0.168145618       278.719806971        -1.127108434        -0.981875741         0.023886184
       151          302.000000         0.165309067       274.017912992        -1.123540929        -0.981789440         0.023809037
       152          304.000000         0.162063513       268.638051160        -1.120644968        -0.981704564         0.025832167
       153          306.000000         0.161734288       268.092324884        -1.119720410        -0.981655450         0.025037205
       154          308.000000         0.161222113       267.243339140        -1.121505162        -0.981673123         0.032744569
       155          310.000000         0.166261769       275.597121146        -1.125767398        -0.981765224         0.023237051
       156          312.000000         0.171532513       284.333958130        -1.131278197        -0.981897475         0.046654676
       157          314.000000         0.180725425       299.572216763        -1.136168640        -0.981998975         0.024125330
       158          316.000000         0.180363656       298.972545877        -1.138841224        -0.982017672         0.023743716
       159          318.000000         0.180210581       298.718806750        -1.138997402        -0.981969117         0.024087966
       160          320.000000         0.180487259       299.177430478        -1.137378944        -0.981891755         0.032339583
       161          322.000000         0.177038130       293.460121561        -1.135087527        -0.981812534         0.024530273
       162          324.000000         0.175194384       290.403909658        -1.133302264        -0.981754677         0.023479417
       163          326.000000         0.176992837       293.385043225        -1.132811002        -0.981742660         0.022927067
       164          328.000000         0.180846574       299.773036071        -1.133665274        -0.981785408         0.023191840
       165          330.000000         0.182722079       302.881890360        -1.135089472        -0.981859202         0.022329206
       166          332.000000         0.182919868       303.209747174        -1.136030233        -0.981916486         0.030235690
       167          334.000000         0.183959953       304.933803008        -1.135714108        -0.981918306         0.023232554
       168          336.000000         0.180101336       298.537721812        -1.134062981        -0.981850962         0.023860944
       169          338.000000         0.180139734       298.601371264        -1.132174528        -0.981748024         0.023779446
       170          340.000000         0.179455333       297.466901382        -1.131604936        -0.981668269         0.024387359
       171          342.000000         0.181139877       300.259217946        -1.133525812        -0.981659084         0.024045736
       172          344.000000         0.188178333       311.926230976        -1.138100285        -0.981727989         0.024941559
       173          346.000000         0.194195152       321.899768463        -1.144326914        -0.981847854         0.032389823
       174          348.000000         0.199942088       331.425945015        -1.150371287        -0.981975932         0.023828535
       175          350.000000         0.203545501       337.398996747        -1.154273782        -0.982068079         0.023072854
       176          352.000000         0.204034399       338.209399649        -1.154695750        -0.982090049         0.025157694
       177          354.000000         0.200885053       332.989012132        -1.151318894        -0.982029892         0.024512646
       178          356.000000         0.193398396       320.579057259        -1.145174205        -0.981910043         0.024871241
       179          358.000000         0.184670964       306.112381701        -1.138133776        -0.981775828         0.031798632
       180          360.000000         0.178757561       296.310266697        -1.132287890        -0.981680857         0.022951922
       181          362.000000         0.175473830       290.867122562        -1.129029070        -0.981666642         0.021993622
       182          364.000000         0.171199296       283.781613748        -1.128591516        -0.981745897         0.022299838
       183          366.000000         0.173877125       288.220409175        -1.129842691        -0.981886785         0.024060158
       184          368.000000         0.176870930       293.182969837        -1.130777399        -0.982017168         0.024269078
       185          370.000000         0.175537425       290.972537794        -1.129530106        -0.982067596         0.032411893
       186          372.000000         0.171131447       283.669145938        -1.125357821        -0.982012749         0.024390616
       187          374.000000         0.163239299       270.587045427        -1.119056820        -0.981878030         0.023836153
       188          376.000000         0.154519569       256.133136618        -1.112785156        -0.981717788         0.023597539
       189          378.000000         0.154650129       256.349553347        -1.108960598        -0.981588931         0.024151992
       190          380.000000         0.156630439       259.632135459        -1.109369671        -0.981541167         0.024107247
       191          382.000000         0.162360685       269.130645875        -1.114611814        -0.981606159         0.031511796
       192          384.000000         0.172125391       285.316717348        -1.123673789        -0.981775080         0.023189489
       193          386.000000         0.183249170       303.755602370        -1.134083191        -0.981996368         0.023223879
       194          388.000000         0.189727877       314.494769606        -1.142451225        -0.982179676         0.022710761
       195          390.000000         0.193961402       321.512300975        -1.146286842        -0.982240856         0.023991047
       196          392.000000         0.191208618       316.949259972        -1.144765599        -0.982149274         0.031200572
       197          394.000000         0.187096843       310.133541607        -1.139211559        -0.981967213         0.021826950
       198          396.000000         0.183156442       303.601894453        -1.132139338        -0.981797499         0.022281562
       199          398.000000         0.173879948       288.225088488        -1.125902514        -0.981710544         0.024175950
       200          400.000000         0.169340300       280.700124394        -1.121785627        -0.981713024         0.024878273
       201          402.000000         0.170864540       283.226718843        -1.119685506        -0.981763744         0.025401063
       202          404.000000         0.169373956       280.755913078        -1.118728058        -0.981808187         0.033170147
       203          406.000000         0.170183694       282.098142066        -1.118184275        -0.981809425         0.023121896
       204          408.000000         0.169357749       280.729047979        -1.118043687        -0.981767765         0.024970704
       205          410.000000         0.172990720       286.751094839        -1.118896763        -0.981715875         0.022348691
       206          412.000000         0.176719384       292.931765408        -1.121449165        -0.981700249         0.024499160
       207          414.000000         0.185433385       307.376177853        -1.125889615        -0.981752953         0.024073219
       208          416.000000         0.189211257       313.638414202        -1.131411094        -0.981871558         0.024495368
       209          418.000000         0.199013195       329.886202944        -1.136272344        -0.982012209         0.032741453
       210          420.000000         0.200776986       332.809879146        -1.138361864        -0.982101619         0.023140614
       211          422.000000         0.195746863       324.471898479        -1.136420056        -0.982086852         0.024285639
       212          424.000000         0.190546304       315.851401351        -1.130734671        -0.981969882         0.021785234
       213          426.000000         0.182847843       303.090357616        -1.123023517        -0.981798202         0.021875631
       214          428.000000         0.173363099       287.368354549        -1.115685854        -0.981635679         0.030817273
       215          430.000000         0.168657303       279.567981073        -1.111162242        -0.981543909         0.023233094
       216          432.000000         0.170275115       282.249681768        -1.110848335        -0.981553212         0.022764170
       217          434.000000         0.179249906       297.126382898        -1.114563506        -0.981656501         0.023607362
       218          436.000000         0.186105712       308.490634312        -1.120651952        -0.981810020         0.023147156
       219          438.000000         0.191290080       317.084292372        -1.126752339        -0.981946692         0.022908377
       220          440.000000         0.192989213       319.900791215        -1.130870453        -0.982005522         0.024436384
       221          442.000000         0.197045880       326.625162052        -1.132193566        -0.981969453         0.031641542
       222          444.000000         0.196016201       324.918356493        -1.131234579        -0.981877917         0.024007833
       223          446.000000         0.193502670       320.751902346        -1.129336693        -0.981798056         0.023212210
       224          448.000000         0.194099746       321.741621762        -1.127635400        -0.981774454         0.022553670
       225          450.000000         0.194746856       322.814277962        -1.126469237        -0.981805343         0.027576969
       226          452.000000         0.195939852       324.791798889        -1.125286515        -0.981846198         0.029355007
       227          454.000000         0.194888428       323.048949275        -1.123371261        -0.981844319         0.024034159